4
Properties=species:S:1:pos:R:3:momenta:R:3:forces:R:3 energy=-18604.1725636772 pbc="F F F"
Al       0.04504899      -2.29825887      -0.08074668      -0.39909665      -0.41972548       0.83707345       0.03656222       0.69439691       0.56005265
F        0.10634587      -0.91516425       0.96518688       0.49053684       1.81416767      -1.39063381      -0.04758274      -0.66821696      -0.63206796
Al      -0.14927504       1.73222219       0.63279329       0.22613085      -1.02000892      -0.15233233      -0.11296569      -0.09515129      -1.12406489
F        0.02811672       1.71416467       2.25671100      -0.31757103      -0.37443327       0.70589269       0.12398621       0.06897139       1.19608021
4
Properties=species:S:1:pos:R:3:momenta:R:3:forces:R:3 energy=-18604.175895497072 pbc="F F F"
Al       0.04390891      -2.29932635      -0.07826158      -0.31343807      -0.28017393       0.70573709       0.03914335       0.71659957       0.56913898
F        0.10833441      -0.90792075       0.95935332       0.38492470       1.38867063      -1.14928639      -0.05029294      -0.68950400      -0.64095812
Al      -0.14865902       1.72923358       0.63205896       0.17048069      -0.81593730      -0.20643596      -0.09886201      -0.09725841      -1.01034823
F        0.02687183       1.71267180       2.26003680      -0.24196732      -0.29255941       0.64998526       0.11001155       0.07016284       1.08216737
4
Properties=species:S:1:pos:R:3:momenta:R:3:forces:R:3 energy=-18604.180409017834 pbc="F F F"
Al       0.04273499      -2.30017738      -0.07545354      -0.32438346      -0.26896192       0.74337545       0.04142243       0.72938166       0.57072576
F        0.11037729      -0.90073017       0.95295175       0.39758904       1.42461640      -1.20666983      -0.05268695      -0.70152313      -0.64224640
Al      -0.14804834       1.72608661       0.63092400       0.17259988      -0.85964896      -0.26213355      -0.08183627      -0.09904893      -0.86646188
F        0.02562888       1.71115919       2.26406226      -0.24580546      -0.29600552       0.72542794       0.09310078       0.07119041       0.93798257
4
Properties=species:S:1:pos:R:3:momenta:R:3:forces:R:3 energy=-18604.18529771158 pbc="F F F"
Al       0.04163309      -2.30073225      -0.07258414      -0.30471063      -0.18823643       0.76015282       0.04313664       0.73158211       0.56495507
F        0.11229386      -0.89423982       0.94654598       0.37327900       1.28977626      -1.20741805      -0.05448487      -0.70322130      -0.63606366
Al      -0.14749616       1.72305945       0.62954247       0.15569486      -0.82665451      -0.33693287      -0.06411555      -0.10015455      -0.71093867
F        0.02449302       1.70975603       2.26835496      -0.22426324      -0.27488532       0.78419810       0.07546379       0.07179374       0.78204726
4
Properties=species:S:1:pos:R:3:momenta:R:3:forces:R:3 energy=-18604.19039255879 pbc="F F F"
Al       0.04055528      -2.30102214      -0.06953626      -0.29817510      -0.11556032       0.80946295       0.04431158       0.72351476       0.55202859
F        0.11416769      -0.88815663       0.93986924       0.36509830       1.21110753      -1.26013156      -0.05570897      -0.69492959      -0.62256141
Al      -0.14697120       1.72002061       0.62791866       0.14734920      -0.82980789      -0.41112003      -0.04560664      -0.10047101      -0.54309190
F        0.02340434       1.70840032       2.27300923      -0.21427239      -0.26573932       0.86178865       0.05700404       0.07188584       0.61362477
4
Properties=species:S:1:pos:R:3:momenta:R:3:forces:R:3 energy=-18604.195429831547 pbc="F F F"
Al       0.03947261      -2.30105642      -0.06623004      -0.29957034      -0.04494948       0.88105780       0.04491815       0.70490876       0.53185181
F        0.11604923      -0.88231200       0.93274399       0.36665072       1.16455984      -1.34754288      -0.05632372      -0.67641353      -0.60158985
Al      -0.14645254       1.71688665       0.62606732       0.14470890      -0.85591920      -0.48186304      -0.02646159      -0.09983281      -0.36408608
F        0.02232380       1.70705521       2.27806827      -0.21178929      -0.26369116       0.94834812       0.03786721       0.07133763       0.43382417
4
Properties=species:S:1:pos:R:3:momenta:R:3:forces:R:3 energy=-18604.199732651963 pbc="F F F"
Al       0.03847634      -2.30084463      -0.06295626      -0.27586730       0.02355542       0.87314047       0.04486863       0.67757809       0.50654356
F        0.11777995      -0.87718219       0.92578957       0.33751066       1.02539420      -1.31553088      -0.05623450      -0.64951424      -0.57530808
Al      -0.14597698       1.71392328       0.62421122       0.13192946      -0.80909156      -0.49196313      -0.00881194      -0.09821023      -0.19413820
F        0.02133260       1.70583320       2.28300929      -0.19357282      -0.23985807       0.93435354       0.02017776       0.07014638       0.26290267
4
Properties=species:S:1:pos:R:3:momenta:R:3:forces:R:3 energy=-18604.203468500946 pbc="F F F"
Al       0.03749351      -2.30038966      -0.05949245      -0.27217466       0.09169556       0.92658183       0.04413561       0.63991122       0.47474657
F        0.11948664      -0.87236913       0.91852422       0.33285969       0.96281036      -1.37696064      -0.05540579      -0.61267789      -0.54227017
Al      -0.14550331       1.71091692       0.62228070       0.13054088      -0.82098153      -0.52075208       0.00823674      -0.09545710      -0.02513166
F        0.02034903       1.70464362       2.28809706      -0.19122591      -0.23352439       0.97113089       0.00303344       0.06822371       0.09265526
4
Properties=species:S:1:pos:R:3:momenta:R:3:forces:R:3 energy=-18604.206675331032 pbc="F F F"
Al       0.03641553      -2.29964108      -0.05545512      -0.29827173       0.17419594       1.08567910       0.04253320       0.58727060       0.43303891
F        0.12135777      -0.86733733       0.91014121       0.36462295       1.00330765      -1.59475269      -0.05363208      -0.56141451      -0.49886820
Al      -0.14497265       1.70753244       0.62012104       0.14536111      -0.92498000      -0.59199376       0.02600219      -0.09108596       0.15666365
F        0.01925519       1.70335533       2.29381341      -0.21171233      -0.25252360       1.10106735      -0.01490330       0.06522992      -0.09083436
4
Properties=species:S:1:pos:R:3:momenta:R:3:forces:R:3 energy=-18604.20864801369 pbc="F F F"
Al       0.03543392      -2.29874721      -0.05157490      -0.27172408       0.21669063       1.04457237       0.04029737       0.52916593       0.38924170
F        0.12306084      -0.86296133       0.90215002       0.33202964       0.87394926      -1.52110244      -0.05117411      -0.50501977      -0.45319939
Al      -0.14447328       1.70437322       0.61817901       0.13589440      -0.86331922      -0.54114148       0.04096302      -0.08582343       0.31516580
F        0.01823700       1.70219659       2.29905199      -0.19619996      -0.22732067       1.01767154      -0.03008623       0.06167727      -0.25120811
4
Properties=species:S:1:pos:R:3:momenta:R:3:forces:R:3 energy=-18604.209699799474 pbc="F F F"
Al       0.03453447      -2.29773285      -0.04783015      -0.24904407       0.25264181       1.00951389       0.03746653       0.46602416       0.34357556
F        0.12462039      -0.85913719       0.89449234       0.30415208       0.76444376      -1.45883821      -0.04806971      -0.44392146      -0.40548239
Al      -0.14399449       1.70140405       0.61648081       0.12950483      -0.81137163      -0.48195099       0.05337374      -0.07977949       0.45157276
F        0.01727486       1.70114865       2.30380315      -0.18461284      -0.20571394       0.93127531      -0.04277056       0.05767679      -0.38966593
4
Properties=species:S:1:pos:R:3:momenta:R:3:forces:R:3 energy=-18604.21020899452 pbc="F F F"
Al       0.03365140      -2.29663571      -0.04398009      -0.24696921       0.30366380       1.05294311       0.03406470       0.39744388       0.29543222
F        0.12614896      -0.85538841       0.88664463       0.30140694       0.72294452      -1.51168880      -0.04432233      -0.37781978      -0.35493372
Al      -0.14349063       1.69839861       0.61509710       0.13509207      -0.82533481      -0.44745478       0.06335841      -0.07267095       0.56659184
F        0.01627843       1.70010938       2.30811879      -0.18952980      -0.20127351       0.90620047      -0.05310079       0.05304680      -0.50709033
4
Properties=species:S:1:pos:R:3:momenta:R:3:forces:R:3 energy=-18604.21031304656 pbc="F F F"
Al       0.03286856      -2.29551153      -0.04042376      -0.21670924       0.28927681       0.96236198       0.03032390       0.32824875       0.24839846
F        0.12749768      -0.85220284       0.87942533       0.26303823       0.63468828      -1.37887707      -0.04020306      -0.31129428      -0.30544101
Al      -0.14300514       1.69567507       0.61405698       0.13024388      -0.74454971      -0.31353169       0.07083760      -0.06532582       0.65738798
F        0.01535201       1.69919522       2.31176457      -0.17657287      -0.17941538       0.73004678      -0.06095844       0.04837140      -0.60034543
4
Properties=species:S:1:pos:R:3:momenta:R:3:forces:R:3 energy=-18604.21033884173 pbc="F F F"
Al       0.03223468      -2.29448013      -0.03741834      -0.17560656       0.26719069       0.81334635       0.02667623       0.26501530       0.20654517
F        0.12858818      -0.84972728       0.87334732       0.21289126       0.49409338      -1.16056685      -0.03618201      -0.25065728      -0.26129851
Al      -0.14258283       1.69341412       0.61341586       0.11252352      -0.61784113      -0.20839407       0.07564412      -0.05849826       0.71989650
F        0.01456198       1.69846587       2.31448480      -0.14980822      -0.14344294       0.55561456      -0.06613834       0.04414029      -0.66514315
4
Properties=species:S:1:pos:R:3:momenta:R:3:forces:R:3 energy=-18604.210524128168 pbc="F F F"
Al       0.03169994      -2.29350760      -0.03477236      -0.14819558       0.25412433       0.71667041       0.02305729       0.20531674       0.16786934
F        0.12950630      -0.84772254       0.86801170       0.17935380       0.40005525      -1.01914744      -0.03218307      -0.19356366      -0.22040712
Al      -0.14219555       1.69145575       0.61310514       0.10266719      -0.53506265      -0.12070520       0.07847074      -0.05196344       0.76110316
F        0.01385327       1.69786121       2.31650387      -0.13382542      -0.11911693       0.42318222      -0.06934492       0.04021041      -0.70856539
4
Properties=species:S:1:pos:R:3:momenta:R:3:forces:R:3 energy=-18604.210978738727 pbc="F F F"
Al       0.03124460      -2.29259699      -0.03242520      -0.12620683       0.24004692       0.63648512       0.01951246       0.14908425       0.13207419
F        0.13028605      -0.84607835       0.86328718       0.15239439       0.32751473      -0.90296098      -0.02825308      -0.13993487      -0.18245845
Al      -0.14183402       1.68974268       0.61309002       0.09545298      -0.46800619      -0.04153572       0.07966080      -0.04572234       0.78425322
F        0.01320675       1.69735669       2.31791645      -0.12164053      -0.09955546       0.30801158      -0.07092018       0.03657297      -0.73386895
4
Properties=species:S:1:pos:R:3:momenta:R:3:forces:R:3 energy=-18604.211812553905 pbc="F F F"
Al       0.03077447      -2.29158790      -0.02991656      -0.13009753       0.26986002       0.68260096       0.01540502       0.08606537       0.09259505
F        0.13108868      -0.84442770       0.85824007       0.15662752       0.32613002      -0.96721695      -0.02368444      -0.07999515      -0.14048118
Al      -0.14142589       1.68793029       0.61336136       0.10819360      -0.49558978       0.03601777       0.07955565      -0.03862769       0.79467261
F        0.01249218       1.69684688       2.31901541      -0.13472359      -0.10040026       0.24859822      -0.07127628       0.03255747      -0.74678648
4
Properties=species:S:1:pos:R:3:momenta:R:3:forces:R:3 energy=-18604.21287235489 pbc="F F F"
Al       0.03036983      -2.29067952      -0.02769890      -0.11190580       0.24529261       0.60461393       0.01153628       0.02839429       0.05700116
F        0.13177705      -0.84302692       0.85377395       0.13430242       0.27485898      -0.85690853      -0.01936586      -0.02529410      -0.10251061
Al      -0.14104352       1.68633759       0.61386382       0.10112384      -0.43559646       0.09898907       0.07825683      -0.03202212       0.79108325
F        0.01183545       1.69641797       2.31961841      -0.12352046      -0.08455513       0.15330553      -0.07042725       0.02892193      -0.74557380
4
Properties=species:S:1:pos:R:3:momenta:R:3:forces:R:3 energy=-18604.21410316724 pbc="F F F"
Al       0.03004152      -2.28992484      -0.02586048      -0.09074600       0.20590446       0.50218663       0.00818038      -0.02046048       0.02720459
F        0.13233298      -0.84188910       0.85006157       0.10847595       0.22131069      -0.71298776      -0.01560022       0.02089104      -0.07059016
Al      -0.14070427       1.68502016       0.61453367       0.08934422      -0.36030572       0.14514327       0.07604774      -0.02628434       0.77584602
F        0.01126396       1.69607938       2.31976856      -0.10707417      -0.06690943       0.06565786      -0.06862784       0.02585373      -0.73246045
4
Properties=species:S:1:pos:R:3:momenta:R:3:forces:R:3 energy=-18604.215764360993 pbc="F F F"
Al       0.02970307      -2.28914743      -0.02393859      -0.09336965       0.21454798       0.52658126       0.00456659      -0.07197917      -0.00388396
F        0.13290308      -0.84069494       0.84616410       0.11103024       0.22994068      -0.75035677      -0.01152029       0.06941254      -0.03711871
Al      -0.14032371       1.68364043       0.61551330       0.10080039      -0.37770020       0.23098674       0.07250496      -0.02004463       0.74634081
F        0.01063406       1.69574063       2.31954528      -0.11846098      -0.06678845      -0.00721123      -0.06555126       0.02261131      -0.70533814
4
Properties=species:S:1:pos:R:3:momenta:R:3:forces:R:3 energy=-18604.21792980992 pbc="F F F"
Al       0.02931977      -2.28829051      -0.02175359      -0.10551141       0.23891928       0.60037867       0.00038217      -0.13038132      -0.03869336
F        0.13354540      -0.83929870       0.84170991       0.12480037       0.26664205      -0.85967559      -0.00676905       0.12420851       0.00055999
Al      -0.13986304       1.68206310       0.61691306       0.12297755      -0.43228644       0.34783801       0.06721913      -0.01275010       0.69864684
F        0.00988186       1.69536752       2.31890839      -0.14226651      -0.07327490      -0.08854109      -0.06083225       0.01892291      -0.66051347
4
Properties=species:S:1:pos:R:3:momenta:R:3:forces:R:3 energy=-18604.219934230467 pbc="F F F"
Al       0.02895369      -2.28754994      -0.01962122      -0.09401082       0.20449318       0.53430680      -0.00373016      -0.18665151      -0.07175512
F        0.13414922      -0.83803120       0.83749463       0.11065202       0.24661968      -0.76934483      -0.00209236       0.17693253       0.03648869
Al      -0.13940997       1.68054551       0.61833554       0.11595452      -0.38749597       0.37401869       0.06154820      -0.00558351       0.64576711
F        0.00915285       1.69519200       2.31806012      -0.13259572      -0.06361689      -0.13898066      -0.05572568       0.01530249      -0.61050068
4
Properties=species:S:1:pos:R:3:momenta:R:3:forces:R:3 energy=-18604.222328489494 pbc="F F F"
Al       0.02852083      -2.28669347      -0.01720823      -0.11871665       0.24442668       0.66633899      -0.00855879      -0.25127254      -0.10915198
F        0.13487160      -0.83641465       0.83243861       0.13981975       0.30397305      -0.97969488       0.00343381       0.23721108       0.07741520
Al      -0.13884573       1.67874187       0.62037528       0.15196550      -0.49515760       0.52857003       0.05362658       0.00292417       0.56892588
F        0.00824389       1.69492061       2.31679238      -0.17306860      -0.05324213      -0.21521415      -0.04850165       0.01113730      -0.53718911
4
Properties=species:S:1:pos:R:3:momenta:R:3:forces:R:3 energy=-18604.224429804395 pbc="F F F"
Al       0.02810870      -2.28597131      -0.01496536      -0.11278446       0.21070836       0.62144301      -0.01294885      -0.30864656      -0.14177187
F        0.13555610      -0.83476947       0.82769776       0.13222359       0.30654913      -0.92074504       0.00849534       0.29044083       0.11343106
Al      -0.13829374       1.67703805       0.62250116       0.14898827      -0.46815928       0.55600783       0.04522345       0.01082188       0.48483363
F        0.00736076       1.69466959       2.31532874      -0.16842741      -0.04909820      -0.25670581      -0.04076993       0.00738385      -0.45649282
4
Properties=species:S:1:pos:R:3:momenta:R:3:forces:R:3 energy=-18604.22606070554 pbc="F F F"
Al       0.02775723      -2.28546458      -0.01312251      -0.09590799       0.15434877       0.51316853      -0.01635355      -0.35207075      -0.16602447
F        0.13613675      -0.83324756       0.82375679       0.11188880       0.28009277      -0.76780849       0.01246805       0.33040519       0.14057436
Al      -0.13781381       1.67560619       0.62445188       0.12960887      -0.39384405       0.51202404       0.03739017       0.01725046       0.40432081
F        0.00659766       1.69446156       2.31388207      -0.14558968      -0.04059749      -0.25738408      -0.03350466       0.00441515      -0.37887069
4
Properties=species:S:1:pos:R:3:momenta:R:3:forces:R:3 energy=-18604.227548842253 pbc="F F F"
Al       0.02739613      -2.28507902      -0.01131967      -0.09838639       0.12319994       0.50336968      -0.01936478      -0.38941700      -0.18647143
F        0.13672997      -0.83154071       0.81984551       0.11412407       0.31390072      -0.76339780       0.01604775       0.36434797       0.16395083
Al      -0.13731532       1.67416524       0.62656879       0.13509316      -0.39665564       0.56162616       0.02876936       0.02342471       0.31363126
F        0.00580932       1.69425357       2.31222652      -0.15083083      -0.04044502      -0.30159803      -0.02545233       0.00164432      -0.29111066
4
Properties=species:S:1:pos:R:3:momenta:R:3:forces:R:3 energy=-18604.228664474194 pbc="F F F"
Al       0.02708212      -2.28487952      -0.00984566      -0.08530429       0.07392547       0.41404628      -0.02144794      -0.41428924      -0.19973575
F        0.13724285      -0.82991540       0.81659080       0.09840917       0.29646141      -0.63755652       0.01860281       0.38645961       0.17969601
Al      -0.13688115       1.67294553       0.62847591       0.11784620      -0.33618769       0.50845550       0.02090934       0.02832492       0.22923094
F        0.00512580       1.69407717       2.31067935      -0.13095108      -0.03419920      -0.28494526      -0.01806421      -0.00049530      -0.20919119
4
Properties=species:S:1:pos:R:3:momenta:R:3:forces:R:3 energy=-18604.229648284032 pbc="F F F"
Al       0.02674903      -2.28482367      -0.00839149      -0.09044032       0.03568826       0.40924992      -0.02300598      -0.43172764      -0.20862750
F        0.13778374      -0.82803201       0.81331224       0.10370194       0.34529265      -0.64294188       0.02062930       0.40123878       0.19112204
Al      -0.13642380       1.67169238       0.63053488       0.12460035      -0.34561372       0.55431114       0.01233872       0.03295429       0.13548429
F        0.00440843       1.69389419       2.30896855      -0.13786197      -0.03536718      -0.32061919      -0.00996210      -0.00246548      -0.11797888
4
Properties=species:S:1:pos:R:3:momenta:R:3:forces:R:3 energy=-18604.230461302475 pbc="F F F"
Al       0.02636786      -2.28492473      -0.00684444      -0.10357182      -0.00655573       0.43519789      -0.02407175      -0.44203206      -0.21330778
F        0.13839966      -0.82571018       0.80974895       0.11811441       0.42936646      -0.69857404       0.02219268       0.40880847       0.19857891
Al      -0.13590772       1.67030358       0.63288853       0.14115403      -0.38310071       0.63986130       0.00245797       0.03760856       0.02548853
F        0.00360091       1.69368825       2.30699206      -0.15569662      -0.03971001      -0.37648515      -0.00057891      -0.00438502      -0.01075966
4
Properties=species:S:1:pos:R:3:momenta:R:3:forces:R:3 energy=-18604.23090314445 pbc="F F F"
Al       0.02602144      -2.28516360      -0.00554339      -0.09397479      -0.04390532       0.36785832      -0.02437853      -0.44269787      -0.21270183
F        0.13895695      -0.82345355       0.80668162       0.10669637       0.41638389      -0.60301630       0.02291172       0.40730242       0.20036902
Al      -0.13544886       1.66908368       0.63498607       0.12592274      -0.33693645       0.57491058      -0.00639670       0.04123237      -0.07474928
F        0.00288393       1.69350337       2.30523271      -0.13864433      -0.03554211      -0.33975260       0.00786351      -0.00583687       0.08708209
4
Properties=species:S:1:pos:R:3:momenta:R:3:forces:R:3 energy=-18604.231101498663 pbc="F F F"
Al       0.02572389      -2.28550857      -0.00452575      -0.08053506      -0.07301552       0.28997698      -0.02400634      -0.43508859      -0.20769933
F        0.13943342      -0.82137754       0.80421128       0.09103085       0.38152453      -0.48763766       0.02285001       0.39816065       0.19728529
Al      -0.13506743       1.66807759       0.63671470       0.10508714      -0.27838271       0.47850076      -0.01368722       0.04378080      -0.15855269
F        0.00228833       1.69334613       2.30380280      -0.11558293      -0.03012630      -0.28084008       0.01484355      -0.00685286       0.16896674
4
Properties=species:S:1:pos:R:3:momenta:R:3:forces:R:3 energy=-18604.235026154172 pbc="F F F"
Al       0.01514257      -2.30584768       0.04144689      -0.21650357      -0.41528241       1.11323831       0.01072726       0.00825262       0.02889180
F        0.15790979      -0.74482132       0.70563235       0.28456606       1.03937003      -1.56378919      -0.00972895      -0.05074222      -0.00797525
Al      -0.12619075       1.65346309       0.64429936       0.12504497      -0.05372156      -0.52731722      -0.00109040       0.09493707       0.05668944
F       -0.01377560       1.66622837       2.32591399      -0.19310747      -0.57036607       0.97786810       0.00009215      -0.05244747      -0.07760598
4
Properties=species:S:1:pos:R:3:momenta:R:3:forces:R:3 energy=-18604.232907117635 pbc="F F F"
Al       0.01425217      -2.30737714       0.04573738      -0.24510691      -0.42052527       1.17711602       0.01349608       0.03677717       0.04102159
F        0.15960834      -0.73925903       0.69712090       0.32899992       1.07831382      -1.64583772      -0.01279571      -0.07713613      -0.01921231
Al      -0.12574159       1.65329216       0.64211294       0.12343211      -0.05161719      -0.60336297       0.01020425       0.09527985       0.22556362
F       -0.01484750       1.66308098       2.33143725      -0.20732513      -0.60617136       1.07208467      -0.01090461      -0.05492088      -0.24737290
4
Properties=species:S:1:pos:R:3:momenta:R:3:forces:R:3 energy=-18604.229800406025 pbc="F F F"
Al       0.01341376      -2.30881256       0.04981426      -0.23096177      -0.39609571       1.11784694       0.01626819       0.06480682       0.05239281
F        0.16121035      -0.73403030       0.68905202       0.31047810       1.01509371      -1.55968562      -0.01585311      -0.10309903      -0.02968339
Al      -0.12531273       1.65316346       0.64012116       0.11729963      -0.04002967      -0.55819035       0.01981740       0.09499178       0.37441153
F       -0.01586786       1.66007361       2.33654486      -0.19681597      -0.57896834       1.00002903      -0.02023242      -0.05669957      -0.39712090
4
Properties=species:S:1:pos:R:3:momenta:R:3:forces:R:3 energy=-18604.2258848648 pbc="F F F"
Al       0.01258852      -2.31021229       0.05387395      -0.22748176      -0.38766761       1.11256542       0.01911055       0.09306350       0.06331090
F        0.16279026      -0.72889969       0.68103908       0.30635336       0.99739357      -1.54835111      -0.01896965      -0.12933534      -0.03962615
Al      -0.12488059       1.65306972       0.63828020       0.11772930      -0.03041501      -0.52407456       0.02819138       0.09426308       0.50908386
F       -0.01688948       1.65706402       2.34140676      -0.19660091      -0.57931094       0.95986025      -0.02833232      -0.05799124      -0.53276861
4
Properties=species:S:1:pos:R:3:momenta:R:3:forces:R:3 energy=-18604.22228736082 pbc="F F F"
Al       0.01191599      -2.31133323       0.05723365      -0.18567313      -0.31247713       0.91975261       0.02145318       0.11596494       0.07174330
F        0.16408094      -0.72473964       0.67443015       0.25056715       0.81096086      -1.27630917      -0.02151756      -0.15069556      -0.04716807
Al      -0.12451598       1.65302333       0.63693191       0.09877066      -0.01737116      -0.39535912       0.03407005       0.09349509       0.60765729
F       -0.01774287       1.65456181       2.34515909      -0.16366468      -0.48111257       0.75191567      -0.03400567      -0.05876447      -0.63223252
4
Properties=species:S:1:pos:R:3:momenta:R:3:forces:R:3 energy=-18604.21795400289 pbc="F F F"
Al       0.01114181      -2.31259256       0.06117035      -0.21370864      -0.35161622       1.07783030       0.02413613       0.14176832       0.08075944
F        0.16557080      -0.71998230       0.66671489       0.28921603       0.92753390      -1.48991790      -0.02440574      -0.17491329      -0.05502552
Al      -0.12407857       1.65300553       0.63559826       0.11847483      -0.00948208      -0.39617883       0.03972046       0.09256029       0.70729269
F       -0.01875444       1.65161826       2.34917750      -0.19398222      -0.56643561       0.80826644      -0.03945086      -0.05941532      -0.73302661
4
Properties=species:S:1:pos:R:3:momenta:R:3:forces:R:3 energy=-18604.21200877913 pbc="F F F"
Al       0.01011880      -2.31421388       0.06645730      -0.28219087      -0.45231547       1.44828287       0.02773830       0.17576880       0.09189211
F        0.16754445      -0.71373766       0.65638681       0.38292844       1.21638780      -1.99488647      -0.02824347      -0.20702339      -0.06444440
Al      -0.12347832       1.65302041       0.63411382       0.16293175      -0.00045946      -0.44249295       0.04577567       0.09120398       0.82168421
F       -0.02012770       1.64765508       2.35410526      -0.26366932      -0.76361286       0.98909655      -0.04527045      -0.05994934      -0.84913193
4
Properties=species:S:1:pos:R:3:momenta:R:3:forces:R:3 energy=-18604.205503385103 pbc="F F F"
Al       0.00902466      -2.31589892       0.07219934      -0.30190717      -0.47149034       1.57274498       0.03171775       0.21255769       0.10303332
F        0.16966032      -0.70710516       0.64520241       0.41062420       1.29298046      -2.16004676      -0.03244126      -0.24197461      -0.07355042
Al      -0.12281325       1.65307038       0.63281672       0.18043666       0.00924775      -0.39665088       0.05082984       0.08961180       0.92668036
F       -0.02163420       1.64334472       2.35897695      -0.28915369      -0.83073787       0.98395266      -0.05010628      -0.06019488      -0.95616326
4
Properties=species:S:1:pos:R:3:momenta:R:3:forces:R:3 energy=-18604.199350947154 pbc="F F F"
Al       0.00796283      -2.31747624       0.07786730      -0.29322909      -0.44370579       1.55184671       0.03567087       0.24832565       0.11294513
F        0.17171912      -0.70072210       0.63419641       0.39979344       1.24645319      -2.12509563      -0.03656572      -0.27619589      -0.08127340
Al      -0.12214299       1.65315113       0.63187278       0.18161467       0.01777907      -0.30479785       0.05440306       0.08810323       1.01169122
F       -0.02313689       1.63908709       2.36327389      -0.28817903      -0.82052648       0.87804677      -0.05350821      -0.06023298      -1.04336300
4
Properties=species:S:1:pos:R:3:momenta:R:3:forces:R:3 energy=-18604.193301805215 pbc="F F F"
Al       0.00683702      -2.31907619       0.08398914      -0.31099436      -0.45167918       1.67603402       0.03992620       0.28597946       0.12236195
F        0.17390834      -0.69402041       0.62234757       0.42522011       1.30976243      -2.28773177      -0.04095228      -0.31251777      -0.08812940
Al      -0.12140384       1.65327040       0.63123516       0.20036038       0.02843410      -0.22483422       0.05684874       0.08672537       1.08410995
F       -0.02477697       1.63448825       2.36733405      -0.31458613      -0.88651735       0.83653197      -0.05582272      -0.06018706      -1.11834254
4
Properties=species:S:1:pos:R:3:momenta:R:3:forces:R:3 energy=-18604.187242153224 pbc="F F F"
Al       0.00565822      -2.32071261       0.09039623      -0.32315519      -0.44741535       1.77477018       0.04474460       0.32793143       0.13200821
F        0.17620290      -0.68704557       0.60992482       0.44318267       1.34701583      -2.41466309      -0.04588679      -0.35315586      -0.09489603