4
Properties=species:S:1:pos:R:3:forces:R:3 energy=-18601.817840820117 pbc="F F F"
Al       0.00000000       0.00000000       0.00000000      -0.00000000      -8.74106456      -6.60459070
F        0.00000000       0.00000000       1.66873493      -0.00000000      -4.98746907       2.65899822
Al       0.00000000       1.58753163       1.66873493       0.00000000       8.74106451       6.60459075
F        0.00000000       1.58753163       0.00000000       0.00000000       4.98746912      -2.65899827
4
Properties=species:S:1:pos:R:3:forces:R:3 energy=-18602.109898862393 pbc="F F F"
Al       0.00929778      -0.00824431      -0.00913678       0.11012267      -8.45943716      -6.36767684
F       -0.00878163      -0.01151050       1.66181499       0.02382194      -4.51492789       2.58838575
Al      -0.02573695       1.58851729       1.69050698      -0.16582218       7.99578377       5.75092463
F        0.00613827       1.57982818      -0.00962909       0.03187752       4.97858128      -1.97163354
4
Properties=species:S:1:pos:R:3:forces:R:3 energy=-18602.83543843622 pbc="F F F"
Al       0.00624327      -0.02914611      -0.02805946       0.05698136      -7.04471125      -5.44658452
F       -0.00379366      -0.02487274       1.66255309       0.04623044      -3.16285477       2.14358445
Al      -0.02985760       1.61513363       1.72405145      -0.14831919       6.18096872       4.30055685
F        0.01134045       1.58507462      -0.03113308       0.04510733       4.02659725      -0.99755679
4
Properties=species:S:1:pos:R:3:forces:R:3 energy=-18603.56295744981 pbc="F F F"
Al       0.00335222      -0.05941925      -0.05415242       0.02326782      -5.23155384      -4.29619430
F        0.00115132      -0.04420943       1.66756649       0.04636368      -1.75122956       1.54126981
Al      -0.03407547       1.64974723       1.76275165      -0.10742322       4.26876258       2.92989805
F        0.01649156       1.59824699      -0.05405126       0.03779172       2.71402081      -0.17497361
4
Properties=species:S:1:pos:R:3:forces:R:3 energy=-18604.050564185287 pbc="F F F"
Al       0.00106228      -0.09045600      -0.08062901       0.01244527      -3.72190731      -3.28928158
F        0.00520432      -0.06293233       1.67441124       0.03344440      -0.75033440       1.00149124
Al      -0.03759858       1.68302586       1.79758363      -0.06518117       2.85615346       1.93231679
F        0.02069427       1.61378597      -0.07276234       0.01929150       1.61608820       0.35547355
4
Properties=species:S:1:pos:R:3:forces:R:3 energy=-18604.39240700763 pbc="F F F"
Al      -0.00121533      -0.12689750      -0.11187982       0.01446822      -2.33841572      -2.28809157
F        0.00933507      -0.08322629       1.68330935       0.01267770       0.04562778       0.46728821
Al      -0.04122351       1.72047476       1.83526658      -0.02064797       1.65469959       1.06015225
F        0.02494631       1.63264922      -0.09079538      -0.00649795       0.63808836       0.76065111
4
Properties=species:S:1:pos:R:3:forces:R:3 energy=-18604.55127912096 pbc="F F F"
Al      -0.00313484      -0.16101188      -0.14150935       0.02334536      -1.34583238      -1.50009292
F        0.01287493      -0.10041440       1.69176190      -0.00816150       0.54041636       0.05840426
Al      -0.04433633       1.75454141       1.86874530       0.01547239       0.83068791       0.43364409
F        0.02855336       1.64990510      -0.10471457      -0.03065629      -0.02527194       1.00804457
4
Properties=species:S:1:pos:R:3:forces:R:3 energy=-18604.59877115301 pbc="F F F"
Al      -0.00489909      -0.19480488      -0.17131830       0.03514940      -0.58396967      -0.84007820
F        0.01617205      -0.11543905       1.69978798      -0.02847595       0.86481180      -0.26857139
Al      -0.04722838       1.78757648       1.90068035       0.04631683       0.21423585      -0.05862753
F        0.03186912       1.66600617      -0.11576012      -0.05299029      -0.49507798       1.16727707
4
Properties=species:S:1:pos:R:3:forces:R:3 energy=-18604.575194869216 pbc="F F F"
Al      -0.00636947      -0.22464130      -0.19806941       0.04647953      -0.05284291      -0.34287082
F        0.01895354      -0.12672543       1.70618246      -0.04555784       1.05143914      -0.49875399
Al      -0.04965372       1.81626932       1.92806428       0.06998677      -0.21006233      -0.41363618
F        0.03462034       1.67891667      -0.12305334      -0.07090841      -0.78853390       1.25526094
4
Properties=species:S:1:pos:R:3:forces:R:3 energy=-18604.51559053772 pbc="F F F"
Al      -0.00765004      -0.25198976      -0.22299437       0.05687893       0.34267115       0.05223819
F        0.02140777      -0.13499901       1.71105851      -0.06028692       1.15902341      -0.66522949
Al      -0.05177513       1.84221240       1.95253208       0.08912689      -0.52458037      -0.68777431
F        0.03699760       1.68918618      -0.12728014      -0.08571894      -0.97711415       1.30076562
4
Properties=species:S:1:pos:R:3:forces:R:3 energy=-18604.438992245086 pbc="F F F"
Al      -0.00877039      -0.27712413      -0.24626160       0.06609988       0.64493870       0.37113347
F        0.02358732      -0.14046674       1.71431602      -0.07297372       1.21445717      -0.78288508
Al      -0.05363818       1.86577885       1.97449108       0.10486199      -0.76527601      -0.90534617
F        0.03905506       1.69688066      -0.12867969      -0.09798819      -1.09411987       1.31709778
4
Properties=species:S:1:pos:R:3:forces:R:3 energy=-18604.359824175473 pbc="F F F"
Al      -0.00972133      -0.29961482      -0.26739339       0.07389372       0.87523166       0.62543693
F        0.02547176      -0.14317200       1.71581137      -0.08361465       1.23305422      -0.85998903
Al      -0.05522650       1.88664488       1.99366842       0.11762525      -0.94971560      -1.07753882
F        0.04077688       1.70189327      -0.12739934      -0.10790427      -1.15857023       1.31209097
4
Properties=species:S:1:pos:R:3:forces:R:3 energy=-18604.299108786872 pbc="F F F"
Al      -0.01039273      -0.31662136      -0.28362678       0.07936148       1.02818747       0.80087494
F        0.02683802      -0.14309116       1.71543934      -0.09117379       1.22587575      -0.89788154
Al      -0.05635541       1.90224500       2.00774159       0.12648435      -1.07325608      -1.19605203
F        0.04196744       1.70380983      -0.12395934      -0.11467203      -1.18080714       1.29305863
4
Properties=species:S:1:pos:R:3:forces:R:3 energy=-18604.299108799223 pbc="F F F"
Al      -0.01039273      -0.31662136      -0.28362678       0.07936148       1.02818747       0.80087489
F        0.02683802      -0.14309116       1.71543934      -0.09117379       1.22587575      -0.89788148
Al      -0.05635541       1.90224500       2.00774159       0.12648435      -1.07325608      -1.19605203
F        0.04196744       1.70380983      -0.12395934      -0.11467203      -1.18080714       1.29305863
4
Properties=species:S:1:pos:R:3:forces:R:3 energy=-18604.24532084884 pbc="F F F"
Al      -0.01098047      -0.33294760      -0.29947536       0.08414450       1.16056242       0.95779534
F        0.02808094      -0.14045562       1.71318094      -0.09800069       1.19810069      -0.91382186
Al      -0.05735385       1.91703047       2.02074601       0.13435403      -1.18135077      -1.30217499
F        0.04297722       1.70336249      -0.11766167      -0.12049790      -1.17731234       1.25820146
4
Properties=species:S:1:pos:R:3:forces:R:3 energy=-18604.2033283942 pbc="F F F"
Al      -0.01145207      -0.34773747      -0.31407496       0.08800876       1.27030802       1.09199223
F        0.02913390      -0.13535546       1.70904074      -0.10381174       1.15213579      -0.90784230
Al      -0.05816731       1.93023742       2.03198418       0.14096604      -1.27227028      -1.39332184
F        0.04374929       1.70051040      -0.10874756      -0.12516311      -1.15017352       1.20917191
4
Properties=species:S:1:pos:R:3:forces:R:3 energy=-18604.16843876104 pbc="F F F"
Al      -0.01186581      -0.36302124      -0.32941306       0.09146171       1.37534751       1.22447707
F        0.03013371      -0.12687092       1.70221354      -0.10943778       1.07949790      -0.87725769
Al      -0.05889777       1.94367170       2.04293436       0.14728900      -1.36092100      -1.48376883
F        0.04437448       1.69465250      -0.09568864      -0.12931292      -1.09392436       1.13654940
4
Properties=species:S:1:pos:R:3:forces:R:3 energy=-18604.149647660404 pbc="F F F"
Al      -0.01211783      -0.37506969      -0.34171726       0.09366545       1.45288464       1.32578497
F        0.03083241      -0.11704302       1.69428865      -0.11355052       0.99605454      -0.82842215
Al      -0.05936212       1.95405439       2.05088529       0.15182936      -1.42782306      -1.55293059
F        0.04469318       1.68719032      -0.08158122      -0.13194429      -1.02111611       1.05556777
4
Properties=species:S:1:pos:R:3:forces:R:3 energy=-18604.146031992193 pbc="F F F"
Al      -0.01222634      -0.38447245      -0.35153970       0.09479704       1.51000756       1.40424008
F        0.03127036      -0.10575045       1.68513274      -0.11642486       0.89857923      -0.76079761
Al      -0.05959096       1.96191217       2.05626232       0.15487329      -1.47829974      -1.60551567
F        0.04473432       1.67809192      -0.06611194      -0.13324548      -0.93028705       0.96207314
4
Properties=species:S:1:pos:R:3:forces:R:3 energy=-18604.156614312597 pbc="F F F"
Al      -0.01219564      -0.39097716      -0.35857146       0.09488472       1.54689189       1.45952904
F        0.03144345      -0.09371493       1.67531188      -0.11802516       0.79038489      -0.67773482
Al      -0.05958780       1.96705228       2.05896780       0.15634849      -1.51171179      -1.64028089
F        0.04451314       1.66799442      -0.05014689      -0.13320809      -0.82556499       0.85848673
4
Properties=species:S:1:pos:R:3:forces:R:3 energy=-18604.18193920629 pbc="F F F"
Al      -0.01201502      -0.39604701      -0.36437826       0.09390898       1.57200535       1.50473371
F        0.03138445      -0.07822408       1.66260009      -0.11867961       0.64061580      -0.55557527
Al      -0.05934443       1.97061486       2.05954781       0.15644413      -1.53493297      -1.66357272
F        0.04396999       1.65464420      -0.03001202      -0.13167350      -0.67768813       0.71441429
4
Properties=species:S:1:pos:R:3:forces:R:3 energy=-18604.218980156198 pbc="F F F"
Al      -0.01164747      -0.39970587      -0.36903694       0.09157273       1.58348311       1.53978644
F        0.03104624      -0.05800520       1.64594133      -0.11819290       0.42029276      -0.36982411
Al      -0.05880186       1.97250512       2.05761881       0.15461767      -1.54494767      -1.67030619
F        0.04301566       1.63693707      -0.00399744      -0.12799744      -0.45882820       0.50034386
4
Properties=species:S:1:pos:R:3:forces:R:3 energy=-18604.251827756038 pbc="F F F"
Al      -0.01118991      -0.40086071      -0.37115655       0.08845017       1.57593142       1.55301651
F        0.03051128      -0.03888588       1.63014297      -0.11657624       0.17858241      -0.16259287
Al      -0.05809993       1.97211121       2.05359616       0.15100044      -1.53508744      -1.65304123
F        0.04190391       1.62001728       0.02052418      -0.12287437      -0.21942639       0.26261759
4
Properties=species:S:1:pos:R:3:forces:R:3 energy=-18604.28089270456 pbc="F F F"
Al      -0.01055462      -0.39976407      -0.37115393       0.08392652       1.54584967       1.54509911
F        0.02967527      -0.01750622       1.61244485      -0.11341939      -0.14133252       0.11333043
Al      -0.05710239       1.96937486       2.04669729       0.14453401      -1.49893531      -1.60209332
F        0.04042097       1.60096635       0.04801635      -0.11504119       0.09441817      -0.05633622
4
Properties=species:S:1:pos:R:3:forces:R:3 energy=-18604.292362344208 pbc="F F F"
Al      -0.00968384      -0.39609061      -0.36875730       0.07755111       1.48447393       1.50856599
F        0.02845092       0.00711239       1.59205745      -0.10817439      -0.59402587       0.50250600
Al      -0.05571530       1.96386209       2.03617105       0.13372992      -1.42153168      -1.49596599
F        0.03843869       1.57895992       0.07994941      -0.10310664       0.53108361      -0.51510600
4
Properties=species:S:1:pos:R:3:forces:R:3 energy=-18604.275018736487 pbc="F F F"
Al      -0.00878902      -0.39073795      -0.36452886       0.07094188       1.40371146       1.44886698
F        0.02713198       0.02827149       1.57455546      -0.10197690      -1.07849455       0.91472401
Al      -0.05427602       1.95692848       2.02459279       0.12070482      -1.31361496      -1.34841737
F        0.03644274       1.56004609       0.10788962      -0.08966975       0.98839805      -1.01517363
4
Properties=species:S:1:pos:R:3:forces:R:3 energy=-18604.232622423027 pbc="F F F"
Al      -0.00779726      -0.38340795      -0.35825324       0.06372942       1.29745121       1.36141620
F        0.02561270       0.04714340       1.55899121      -0.09432113      -1.61226008       1.36135505
Al      -0.05267141       1.94815368       2.01114597       0.10448866      -1.16463320      -1.14391360
F        0.03427464       1.54322609       0.13363842      -0.07389696       1.47944208      -1.57885770
4
Properties=species:S:1:pos:R:3:forces:R:3 energy=-18604.170611474867 pbc="F F F"
Al      -0.00668410      -0.37398135      -0.34981894       0.05597302       1.16263998       1.24290700
F        0.02385473       0.06324252       1.54577905      -0.08500700      -2.17467120       1.82035110
Al      -0.05086838       1.93743291       1.99564705       0.08476223      -0.96760472      -0.87004533
F        0.03189104       1.52896495       0.15688374      -0.05572825       1.97963594      -2.19321277
4
Properties=species:S:1:pos:R:3:forces:R:3 energy=-18604.10818277024 pbc="F F F"
Al      -0.00549882      -0.36296241      -0.33967104       0.04832342       1.00680602       1.09948052
F        0.02193679       0.07482820       1.53634313      -0.07458704      -2.67904275       2.21613071
Al      -0.04895695       1.92540673       1.97901472       0.06301893      -0.73391698      -0.53855010
F        0.02941104       1.51880975       0.17552885      -0.03675526       2.40615370      -2.77706113
4
Properties=species:S:1:pos:R:3:forces:R:3 energy=-18604.065971409036 pbc="F F F"
Al      -0.00417913      -0.34987497      -0.32736514       0.04074685       0.82488709       0.92614578
F        0.01976060       0.08144607       1.53102455      -0.06287767      -3.06828707       2.49936937
Al      -0.04685064       1.91165892       1.96070111       0.03936328      -0.46115202      -0.14036023
F        0.02672162       1.51312973       0.18937959      -0.01723246       2.70455200      -3.28515486
4
Properties=species:S:1:pos:R:3:forces:R:3 energy=-18604.062945591235 pbc="F F F"
Al      -0.00259710      -0.33353851      -0.31177268       0.03305981       0.60138431       0.70714120
F        0.01711782       0.08236058       1.53036274      -0.04944407      -3.28649358       2.62372782
Al      -0.04436514       1.89512183       1.93940110       0.01336064      -0.13653963       0.35277579
F        0.02358770       1.51250016       0.19814727       0.00302367       2.82164889      -3.68364482
4
Properties=species:S:1:pos:R:3:forces:R:3 energy=-18604.11361677254 pbc="F F F"
Al      -0.00082961      -0.31489896      -0.29378337       0.02627395       0.35010267       0.45541028
F        0.01414283       0.07639021       1.53520327      -0.03608245      -3.25219789       2.53696661
Al      -0.04164580       1.87695790       1.91679438      -0.01096987       0.20039349       0.89059786
F        0.02019049       1.51779506       0.19986437       0.02077837       2.70170173      -3.88297475
4
Properties=species:S:1:pos:R:3:forces:R:3 energy=-18604.20632903496 pbc="F F F"
Al       0.00075460      -0.29809433      -0.27740726       0.02185345       0.13163797       0.23351043
F        0.01146693       0.06495985       1.54428035      -0.02631709      -2.98324037       2.28132175
Al      -0.03927743       1.86130883       1.89817810      -0.02631468       0.44712865       1.30249916
F        0.01725294       1.52758429       0.19396880       0.03077827       2.40447369      -3.81733134
4
Properties=species:S:1:pos:R:3:forces:R:3 energy=-18604.33174323829 pbc="F F F"
Al       0.00227392      -0.28211702      -0.26169137       0.01903779      -0.06222852       0.03556674
F        0.00889999       0.04833830       1.55730701      -0.01932652      -2.53527662       1.90708758
Al      -0.03708791       1.84722061       1.88248774      -0.03360710       0.60472814       1.56845075
F        0.01455258       1.54152296       0.18090589       0.03389583       1.99277700      -3.51110501
4
Properties=species:S:1:pos:R:3:forces:R:3 energy=-18604.45095539944 pbc="F F F"
Al       0.00349453      -0.26961640      -0.24927159       0.01766024      -0.19788908      -0.10319776
F        0.00684376       0.03064813       1.57102617      -0.01545423      -2.06245792       1.53736204
Al      -0.03540689       1.83690090       1.87213850      -0.03357270       0.65800423       1.64178478
F        0.01248791       1.55611579       0.16424613       0.03136669       1.60234272      -3.07594906
4
Properties=species:S:1:pos:R:3:forces:R:3 energy=-18604.56353823124 pbc="F F F"
Al       0.00459456      -0.25886035      -0.23845937       0.01692285      -0.29627950      -0.20475300
F        0.00500115       0.01110787       1.58606139      -0.01316163      -1.57025967       1.16797502
Al      -0.03396984       1.82868710       1.86522264      -0.02920568       0.64307280       1.57274670
F        0.01072735       1.57204555       0.14367731       0.02544446       1.22346637      -2.53596871
4
Properties=species:S:1:pos:R:3:forces:R:3 energy=-18604.66866245612 pbc="F F F"
Al       0.00578454      -0.24790490      -0.22730965       0.01638739      -0.37685968      -0.29059453
F        0.00302210      -0.01287146       1.60442803      -0.01142531      -1.02756933       0.77098416
Al      -0.03249086       1.82093486       1.86021415      -0.02212172       0.58262940       1.39040893
F        0.00891596       1.59147568       0.11658888       0.01715965       0.82179966      -1.87079856
4
Properties=species:S:1:pos:R:3:forces:R:3 energy=-18604.734197040238 pbc="F F F"
Al       0.00685078      -0.23879722      -0.21791565       0.01592963      -0.42750476      -0.34939176
F        0.00126365      -0.03587363       1.62201560      -0.01010536      -0.57090646       0.44201627
Al      -0.03122272       1.81491439       1.85768609      -0.01553651       0.51056225       1.17518377
F        0.00735913       1.61009338       0.08925031       0.00971224       0.48784892      -1.26780829
4
Properties=species:S:1:pos:R:3:forces:R:3 energy=-18604.766263705595 pbc="F F F"
Al       0.00786282      -0.23092986      -0.20967469       0.01536815      -0.45635254      -0.39080267
F       -0.00038898      -0.05835083       1.63921254      -0.00883411      -0.17899322       0.16199849
Al      -0.03006661       1.81002825       1.85695957      -0.01001476       0.43732226       0.95302610
F        0.00593254       1.62833666       0.06138135       0.00348071       0.19802345      -0.72422191
4
Properties=species:S:1:pos:R:3:forces:R:3 energy=-18604.770145235874 pbc="F F F"
Al       0.00871313      -0.22506939      -0.20342236       0.01471766      -0.46569336      -0.41545369
F       -0.00176118      -0.07712278       1.65362098      -0.00766261       0.11197618      -0.04506203
Al      -0.02913114       1.80658890       1.85760432      -0.00629658       0.37685613       0.76829998
F        0.00476857       1.64367014       0.03717769      -0.00075848      -0.02313890      -0.30778431
4
Properties=species:S:1:pos:R:3:forces:R:3 energy=-18604.752055398454 pbc="F F F"
Al       0.00966080      -0.21938515      -0.19723649       0.01375936      -0.46237010      -0.43443563
F       -0.00327126      -0.09732093       1.66921083      -0.00619615       0.39174153      -0.24369946
Al      -0.02812216       1.80340765       1.85945387      -0.00335796       0.31472537       0.57924357
F        0.00349982       1.66031354       0.01017591      -0.00420525      -0.24409680       0.09889153
4
Properties=species:S:1:pos:R:3:forces:R:3 energy=-18604.71997149857 pbc="F F F"
Al       0.01050568      -0.21504699      -0.19242345       0.01269894      -0.45028880      -0.44620043
F       -0.00459998      -0.11419088       1.68234338      -0.00474147       0.60133634      -0.39214258
Al      -0.02724673       1.80105466       1.86184244      -0.00182440       0.26617311       0.43372745
F        0.00238535       1.67436414      -0.01318436      -0.00613306      -0.41722065       0.40461556
4
Properties=species:S:1:pos:R:3:forces:R:3 energy=-18604.67887450202 pbc="F F F"
Al       0.01133500      -0.21151152      -0.18842613       0.01147679      -0.43161801      -0.45380329
F       -0.00588567      -0.12919711       1.69417640      -0.00320627       0.77163136      -0.51218050
Al      -0.02640843       1.79916782       1.86474482      -0.00118106       0.22451260       0.31320075
F        0.00130268       1.68702901      -0.03481633      -0.00708946      -0.56452595       0.65278304
4
Properties=species:S:1:pos:R:3:forces:R:3 energy=-18604.636043654595 pbc="F F F"
Al       0.01211729      -0.20883791      -0.18535618       0.01018059      -0.40955640      -0.45814969
F       -0.00708021      -0.14155830       1.70411186      -0.00169009       0.90201083      -0.60327603
Al      -0.02563526       1.79773291       1.86785834      -0.00121773       0.19023054       0.21903271
F        0.00028817       1.69763099      -0.05353355      -0.00727278      -0.68268497       0.84239301
4
Properties=species:S:1:pos:R:3:forces:R:3 energy=-18604.570435194335 pbc="F F F"
Al       0.01326008      -0.20570704      -0.18174006       0.00811060      -0.37395891      -0.46250092
F       -0.00880233      -0.15710163       1.71690648       0.00060884       1.05416497      -0.70782033
Al      -0.02452546       1.79600101       1.87271795      -0.00210625       0.14715720       0.10975012
F       -0.00118884       1.71118750      -0.07836541      -0.00661319      -0.82736332       1.06057113
4
Properties=species:S:1:pos:R:3:forces:R:3 energy=-18604.507455323113 pbc="F F F"
Al       0.01434950      -0.20327304      -0.17897133       0.00600893      -0.33941007      -0.46638833
F       -0.01042583      -0.16968486       1.72758015       0.00286097       1.16855665      -0.78420658
Al      -0.02348137       1.79457161       1.87745524      -0.00361667       0.11220403       0.03050275
F       -0.00259536       1.72234400      -0.09969913      -0.00525323      -0.94135061       1.22009216
4
Properties=species:S:1:pos:R:3:forces:R:3 energy=-18604.426494282212 pbc="F F F"
Al       0.01580546      -0.20060740      -0.17607275       0.00307633      -0.29421059      -0.47210893
F       -0.01257390      -0.18362395       1.73989328       0.00591410       1.28765499      -0.86011110
Al      -0.02210159       1.79286117       1.88379368      -0.00629314       0.07202674      -0.04760624
F       -0.00447461       1.73492650      -0.12513069      -0.00269734      -1.06547114       1.37982627
4
Properties=species:S:1:pos:R:3:forces:R:3 energy=-18604.35212381373 pbc="F F F"
Al       0.01724391      -0.19839949      -0.17388796       0.00010197      -0.25180589      -0.47897239
F       -0.01467776      -0.19475740       1.75028722       0.00894405       1.37842780      -0.91378494
Al      -0.02075148       1.79127869       1.88996927      -0.00940417       0.03749224      -0.10232210
F       -0.00633106       1.74517171      -0.14739805       0.00035815      -1.16411415       1.49507943
4
Properties=species:S:1:pos:R:3:forces:R:3 energy=-18604.28972879152 pbc="F F F"
Al       0.01864203      -0.19660880      -0.17244010      -0.00280518      -0.21371068      -0.48676160
F       -0.01670452      -0.20281686       1.75855858       0.01185978       1.44446607      -0.94828673
Al      -0.01945261       1.78979360       1.89582685      -0.01269230       0.00815811      -0.13968933
F       -0.00813457       1.75279716      -0.16604459       0.00363770      -1.23891351       1.57473766
4
Properties=species:S:1:pos:R:3:forces:R:3 energy=-18604.22617051725 pbc="F F F"
Al       0.02038388      -0.19471587      -0.17141460      -0.00640688      -0.17047850      -0.49791802
F       -0.01920900      -0.20958389       1.76672379       0.01543140       1.50428680      -0.97321759
Al      -0.01785065       1.78795174       1.90291866      -0.01698774      -0.02399755      -0.17139001
F       -0.01037896       1.75949166      -0.18573800       0.00796317      -1.30981076       1.64252562
4
Properties=species:S:1:pos:R:3:forces:R:3 energy=-18604.180069748178 pbc="F F F"
Al       0.02204373      -0.19314102      -0.17112938      -0.00978320      -0.13360147      -0.50992986
F       -0.02157780      -0.21307545       1.77261113       0.01875723       1.54359671      -0.98279238
Al      -0.01633963       1.78615348       1.90947319      -0.02118332      -0.05083056      -0.19097266
F       -0.01251343       1.76330051      -0.20133915       0.01220930      -1.35916468       1.68369485
4
Properties=species:S:1:pos:R:3:forces:R:3 energy=-18604.135749460638 pbc="F F F"
Al       0.02434971      -0.19116648      -0.17160530      -0.01435997      -0.08837664      -0.52833546
F       -0.02484694      -0.21419956       1.77845457       0.02324740       1.57801597      -0.98022827
Al      -0.01426149       1.78354982       1.91831773      -0.02706811      -0.08311092      -0.20707636
F       -0.01547062       1.76531811      -0.21906773       0.01818068      -1.40652842       1.71564009
4
Properties=species:S:1:pos:R:3:forces:R:3 energy=-18604.10068360276 pbc="F F F"
Al       0.02721188      -0.18883818      -0.17305143      -0.01988281      -0.03893196      -0.55299923
F       -0.02888421      -0.21199776       1.78352465       0.02864111       1.60196004      -0.96286864
Al      -0.01170485       1.78015822       1.92905085      -0.03436238      -0.11756026      -0.21614423
F       -0.01912915       1.76462639      -0.23732718       0.02560408      -1.44546778       1.73201210
4
Properties=species:S:1:pos:R:3:forces:R:3 energy=-18604.081192260153 pbc="F F F"
Al       0.03045570      -0.18623432      -0.17555375      -0.02588412       0.00887468      -0.58235044
F       -0.03344043      -0.20599035       1.78722792       0.03448184       1.61039341      -0.93077829
Al      -0.00883278       1.77609801       1.94099800      -0.04249484      -0.14921887      -0.21697896
F       -0.02325872       1.76068730      -0.25444400       0.03389712      -1.47004917       1.73010769
4
Properties=species:S:1:pos:R:3:forces:R:3 energy=-18604.081676748567 pbc="F F F"
Al       0.03354966      -0.18370906      -0.17878696      -0.03121823       0.04447520      -0.61076596
F       -0.03776846      -0.19697887       1.78894391       0.03967974       1.59943645      -0.88994099
Al      -0.00612088       1.77197011       1.95222230      -0.04997994      -0.16994808      -0.21117757
F       -0.02717618       1.75395190      -0.26750894       0.04151843      -1.47396362       1.71188448
4
Properties=species:S:1:pos:R:3:forces:R:3 energy=-18604.10176313575 pbc="F F F"
Al       0.03675598      -0.18098948      -0.18308141      -0.03611829       0.06750915      -0.63941124
F       -0.04223505      -0.18417455       1.78889354       0.04450107       1.56479577      -0.83794161
Al      -0.00334368       1.76738190       1.96371057      -0.05725965      -0.17783144      -0.20002536
F       -0.03120739       1.74380140      -0.27767525       0.04887688      -1.45447342       1.67737816
4
Properties=species:S:1:pos:R:3:forces:R:3 energy=-18604.142352644634 pbc="F F F"
Al       0.04024438      -0.17788290      -0.18878908      -0.04040489       0.07244742      -0.66800932
F       -0.04707520      -0.16668105       1.78704634       0.04881589       1.49645347      -0.77245700
Al      -0.00036125       1.76204451       1.97610323      -0.06432001      -0.16596688      -0.18320047
F       -0.03555711       1.72947609      -0.28532207       0.05590895      -1.40293406       1.62366678
4
Properties=species:S:1:pos:R:3:forces:R:3 energy=-18604.20412356293 pbc="F F F"
Al       0.04419419      -0.17419866      -0.19638059      -0.04338937       0.04682643      -0.69517873
F       -0.05253516      -0.14329402       1.78323496       0.05202144       1.37523315      -0.69080950
Al       0.00296988       1.75565087       1.99007409      -0.07066966      -0.11996182      -0.15885752
F       -0.04043754       1.70993696      -0.29057064       0.06203754      -1.30209781       1.54484575
4
Properties=species:S:1:pos:R:3:forces:R:3 energy=-18604.273922728553 pbc="F F F"
Al       0.04806034      -0.17046792      -0.20492193      -0.04348055      -0.01980151      -0.71428995
F       -0.05785966      -0.11724979       1.77804509       0.05260729       1.20131241      -0.60622740
Al       0.00618187       1.74912132       2.00374140      -0.07430329      -0.03135563      -0.12876996
F       -0.04516542       1.68786760      -0.29266068       0.06517654      -1.15015527       1.44928730
4
Properties=species:S:1:pos:R:3:forces:R:3 energy=-18604.351837871312 pbc="F F F"
Al       0.05230573      -0.16633771      -0.21552692      -0.03881353      -0.15437249      -0.72478082
F       -0.06368401      -0.08562695       1.77095547       0.04893458       0.93215090      -0.51212815